------------------------------------------------------------
          Invoking FHI-aims ...

          When using FHI-aims, please cite the following reference:

            Volker Blum, Ralf Gehrke, Felix Hanke, Paula Havu,
            Ville Havu, Xinguo Ren, Karsten Reuter, and Matthias Scheffler,
            'Ab Initio Molecular Simulations with Numeric Atom-Centered Orbitals',
            Computer Physics Communications 180, 2175-2196 (2009)

          In addition, many other developments in FHI-aims are likely important for
          your particular application. If so, please cite them. A partial list of references
          is written at the end of this file. Thank you for giving credit to the authors
          of these developments.

          For general information about FHI-aims please find us at

            https://fhi-aims.org

          Online tutorials can be found at

            https://fhi-aims-club.gitlab.io/tutorials/tutorials-overview/

          For any questions about FHI-aims, please visit our slack channel at

            https://fhi-aims.slack.com

          and our main development and support site at

            https://aims-git.rz-berlin.mpg.de .

          The latter site, in particular, has a wiki to collect information, as well
          as an issue tracker to log discussions, suggest improvements, and report issues
          or bugs. https://aims-git.rz-berlin.mpg.de is also the main development site
          of the project and all new and updated code versions can be obtained there.
          Please send an email to aims-coordinators@fhi-berlin.mpg.de and we will add
          you to these sites. They are for you and everyone is welcome there.

------------------------------------------------------------



  Date     :  20240821, Time     :  020243.471
  Time zero on CPU 1             :   0.386427100000000E+01  s.
  Internal wall clock time zero  :           493437763.471  s.

  FHI-aims created a unique identifier for this run for later identification
  aims_uuid : A7C02A32-8EEE-4BB3-AFA4-B2AB109D551E

  Build configuration of the current instance of FHI-aims
  -------------------------------------------------------
  FHI-aims version      : 240717
  Commit number         : fb03edb57
  CMake host system     : Linux-5.14.21-150400.24.100-default
  CMake version         : 3.30.0
  Fortran compiler      : /mpcdf/soft/SLE_15/packages/x86_64/intel_oneapi/2022.3/mpi/2021.7.1/bin/mpiifort (Intel) version 2021.7.0.20221019
  Fortran compiler flags: -O3 -ip -fp-model precise
  C compiler            : /mpcdf/soft/SLE_15/packages/x86_64/intel/2021.7.1/bin/icc (Intel) version 2021.7.0.20221019
  C compiler flags      : -O3 -ip -fp-model precise -std=gnu99
  C++ compiler          : /mpcdf/soft/SLE_15/packages/x86_64/intel/2021.7.1/bin/icpc (Intel) version 2021.7.0.20221019
  C++ compiler flags    : -O3 -ip -fp-model precise
  CUDA compiler         : /mpcdf/soft/SLE_15/packages/x86_64/cuda/12.1.1/bin/nvcc
  CUDA compiler flags   : -O3 -DAdd_ -lcublas
  HIP compiler          :
  HIP compiler flags    :
  HIP GPU arch          :
  ELPA2 kernel          : AVX512
  Using MPI
  Using ScaLAPACK
  Using LibXC
  Using CUDA
  Using i-PI
  Using RLSY
  Linking against: /mpcdf/soft/SLE_15/packages/x86_64/cuda/12.1.1/lib64/libcublas.so
                   /mpcdf/soft/SLE_15/packages/x86_64/cuda/12.1.1/lib64/libcudart.so
                   /mpcdf/soft/SLE_15/packages/x86_64/intel_oneapi/2023.1/mkl/latest/lib/intel64/libmkl_intel_lp64.so
                   /mpcdf/soft/SLE_15/packages/x86_64/intel_oneapi/2023.1/mkl/latest/lib/intel64/libmkl_sequential.so
                   /mpcdf/soft/SLE_15/packages/x86_64/intel_oneapi/2023.1/mkl/latest/lib/intel64/libmkl_core.so
                   /mpcdf/soft/SLE_15/packages/x86_64/intel_oneapi/2023.1/mkl/latest/lib/intel64/libmkl_blacs_intelmpi_lp64.so
                   /mpcdf/soft/SLE_15/packages/x86_64/intel_oneapi/2023.1/mkl/latest/lib/intel64/libmkl_scalapack_lp64.so

  Using      144 parallel tasks.
  Task        0 on host adag051 reporting.
  Task        1 on host adag051 reporting.
  Task        2 on host adag051 reporting.
  Task        3 on host adag051 reporting.
  Task        4 on host adag051 reporting.
  Task        5 on host adag051 reporting.
  Task        6 on host adag051 reporting.
  Task        7 on host adag051 reporting.
  Task        8 on host adag051 reporting.
  Task        9 on host adag051 reporting.
  Task       10 on host adag051 reporting.
  Task       11 on host adag051 reporting.
  Task       12 on host adag051 reporting.
  Task       13 on host adag051 reporting.
  Task       14 on host adag051 reporting.
  Task       15 on host adag051 reporting.
  Task       16 on host adag051 reporting.
  Task       17 on host adag051 reporting.
  Task       18 on host adag051 reporting.
  Task       19 on host adag051 reporting.
  Task       20 on host adag051 reporting.
  Task       21 on host adag051 reporting.
  Task       22 on host adag051 reporting.
  Task       23 on host adag051 reporting.
  Task       24 on host adag051 reporting.
  Task       25 on host adag051 reporting.
  Task       26 on host adag051 reporting.
  Task       27 on host adag051 reporting.
  Task       28 on host adag051 reporting.
  Task       29 on host adag051 reporting.
  Task       30 on host adag051 reporting.
  Task       31 on host adag051 reporting.
  Task       32 on host adag051 reporting.
  Task       33 on host adag051 reporting.
  Task       34 on host adag051 reporting.
  Task       35 on host adag051 reporting.
  Task       36 on host adag051 reporting.
  Task       37 on host adag051 reporting.
  Task       38 on host adag051 reporting.
  Task       39 on host adag051 reporting.
  Task       40 on host adag051 reporting.
  Task       41 on host adag051 reporting.
  Task       42 on host adag051 reporting.
  Task       43 on host adag051 reporting.
  Task       44 on host adag051 reporting.
  Task       45 on host adag051 reporting.
  Task       46 on host adag051 reporting.
  Task       47 on host adag051 reporting.
  Task       48 on host adag051 reporting.
  Task       49 on host adag051 reporting.
  Task       50 on host adag051 reporting.
  Task       51 on host adag051 reporting.
  Task       52 on host adag051 reporting.
  Task       53 on host adag051 reporting.
  Task       54 on host adag051 reporting.
  Task       55 on host adag051 reporting.
  Task       56 on host adag051 reporting.
  Task       57 on host adag051 reporting.
  Task       58 on host adag051 reporting.
  Task       59 on host adag051 reporting.
  Task       60 on host adag051 reporting.
  Task       61 on host adag051 reporting.
  Task       62 on host adag051 reporting.
  Task       63 on host adag051 reporting.
  Task       64 on host adag051 reporting.
  Task       65 on host adag051 reporting.
  Task       66 on host adag051 reporting.
  Task       67 on host adag051 reporting.
  Task       68 on host adag051 reporting.
  Task       69 on host adag051 reporting.
  Task       70 on host adag051 reporting.
  Task       71 on host adag051 reporting.
  Task       72 on host adag058 reporting.
  Task       73 on host adag058 reporting.
  Task       74 on host adag058 reporting.
  Task       75 on host adag058 reporting.
  Task       76 on host adag058 reporting.
  Task       77 on host adag058 reporting.
  Task       78 on host adag058 reporting.
  Task       79 on host adag058 reporting.
  Task       80 on host adag058 reporting.
  Task       81 on host adag058 reporting.
  Task       82 on host adag058 reporting.
  Task       83 on host adag058 reporting.
  Task       84 on host adag058 reporting.
  Task       85 on host adag058 reporting.
  Task       86 on host adag058 reporting.
  Task       87 on host adag058 reporting.
  Task       88 on host adag058 reporting.
  Task       89 on host adag058 reporting.
  Task       90 on host adag058 reporting.
  Task       91 on host adag058 reporting.
  Task       92 on host adag058 reporting.
  Task       93 on host adag058 reporting.
  Task       94 on host adag058 reporting.
  Task       95 on host adag058 reporting.
  Task       96 on host adag058 reporting.
  Task       97 on host adag058 reporting.
  Task       98 on host adag058 reporting.
  Task       99 on host adag058 reporting.
  Task      100 on host adag058 reporting.
  Task      101 on host adag058 reporting.
  Task      102 on host adag058 reporting.
  Task      103 on host adag058 reporting.
  Task      104 on host adag058 reporting.
  Task      105 on host adag058 reporting.
  Task      106 on host adag058 reporting.
  Task      107 on host adag058 reporting.
  Task      108 on host adag058 reporting.
  Task      109 on host adag058 reporting.
  Task      110 on host adag058 reporting.
  Task      111 on host adag058 reporting.
  Task      112 on host adag058 reporting.
  Task      113 on host adag058 reporting.
  Task      114 on host adag058 reporting.
  Task      115 on host adag058 reporting.
  Task      116 on host adag058 reporting.
  Task      117 on host adag058 reporting.
  Task      118 on host adag058 reporting.
  Task      119 on host adag058 reporting.
  Task      120 on host adag058 reporting.
  Task      121 on host adag058 reporting.
  Task      122 on host adag058 reporting.
  Task      123 on host adag058 reporting.
  Task      124 on host adag058 reporting.
  Task      125 on host adag058 reporting.
  Task      126 on host adag058 reporting.
  Task      127 on host adag058 reporting.
  Task      128 on host adag058 reporting.
  Task      129 on host adag058 reporting.
  Task      130 on host adag058 reporting.
  Task      131 on host adag058 reporting.
  Task      132 on host adag058 reporting.
  Task      133 on host adag058 reporting.
  Task      134 on host adag058 reporting.
  Task      135 on host adag058 reporting.
  Task      136 on host adag058 reporting.
  Task      137 on host adag058 reporting.
  Task      138 on host adag058 reporting.
  Task      139 on host adag058 reporting.
  Task      140 on host adag058 reporting.
  Task      141 on host adag058 reporting.
  Task      142 on host adag058 reporting.
  Task      143 on host adag058 reporting.

  Memory overcommitment is allowed on your operating system.

  Obtaining array dimensions for all initial allocations:
  
  -----------------------------------------------------------------------
  Parsing control.in (first pass over file, find array dimensions only).
  The contents of control.in will be repeated verbatim below
  unless switched off by setting 'verbatim_writeout .false.' .
  in the first line of control.in .
  -----------------------------------------------------------------------
  
  xc                        pbe
  relativistic              atomic_zora scalar
  spin                      none
  k_grid                    16 16 1
  k_offset                  0.46875 0.46875 0.0
  use_dipole_correction
  use_gpu                   .true.
  occupation_type           gaussian  0.1
  vdw_correction_hirshfeld
  vdw_pair_ignore           Cu Cu
  #
  # Friction
  #
  output                    k_point_list
  output                    mulliken
  calculate_friction                 numerical_friction
  calculate_all_eigenstates          .true.
  friction_max_energy                2.0
  friction_iter_limit                50
  friction_elsi_epc_write            .true.
  friction_output_eigenvalues        .true.
  friction_output_tensor_grid        .true.
  friction_discretization_length     0.01
  friction_window_size               0.01
  
  ################################################################################
  #
  #  FHI-aims code project
  #  VB, Fritz-Haber Institut, 2009
  #
  #  Suggested "light" defaults for H atom (to be pasted into control.in file)
  #  Be sure to double-check any results obtained with these settings for post-processing,
  #  e.g., with the "tight" defaults and larger basis sets.
  #
  ################################################################################
    species        H
  #     global species definitions
      nucleus             1
      mass                1.00794
  #
      l_hartree           4
  #
      cut_pot             3.5  1.5  1.0
      basis_dep_cutoff    1e-4
  #
      radial_base         24 5.0
      radial_multiplier   2
      angular_grids       specified
        division   0.2421   50
        division   0.3822  110
        division   0.4799  194
        division   0.5341  302
  #      division   0.5626  434
  #      division   0.5922  590
  #      division   0.6542  770
  #      division   0.6868 1202
  #      outer_grid  770
        outer_grid  302
  ################################################################################
  #
  #  Definition of "minimal" basis
  #
  ################################################################################
  #     valence basis states
      valence      1  s   1.
  #     ion occupancy
      ion_occ      1  s   0.5
  ################################################################################
  #
  #  Suggested additional basis functions. For production calculations,
  #  uncomment them one after another (the most important basis functions are
  #  listed first).
  #
  #  Basis constructed for dimers: 0.5 A, 0.7 A, 1.0 A, 1.5 A, 2.5 A
  #
  ################################################################################
  #  "First tier" - improvements: -1014.90 meV to -62.69 meV
       hydro 2 s 2.1
       hydro 2 p 3.5
  #  "Second tier" - improvements: -12.89 meV to -1.83 meV
  #     hydro 1 s 0.85
  #     hydro 2 p 3.7
  #     hydro 2 s 1.2
  #     hydro 3 d 7
  #  "Third tier" - improvements: -0.25 meV to -0.12 meV
  #     hydro 4 f 11.2
  #     hydro 3 p 4.8
  #     hydro 4 d 9
  #     hydro 3 s 3.2
  ################################################################################
  #
  #  FHI-aims code project
  #  VB, Fritz-Haber Institut, 2010
  #
  #  Suggested "light" defaults for Cu atom (to be pasted into control.in file)
  #  Be sure to double-check any results obtained with these settings for post-processing,
  #  e.g., with the "tight" defaults and larger basis sets.
  #
  ################################################################################
    species        Cu
  #
      hirshfeld_param 59 10.9 2.40
  #
      nucleus      29
      mass         63.546
  #
      l_hartree    4
  #
      cut_pot      3.5  1.5  1.0
      basis_dep_cutoff    1e-4
  #
      radial_base        53 5.0
      radial_multiplier  2
      angular_grids       specified
        division   0.5231   50
        division   0.8642  110
        division   1.1767  194
        division   1.5041  302
  #      division   1.9293  434
  #      division   2.0065  590
  #      division   2.0466  770
  #      division   2.0877  974
  #      division   2.4589 1202
        outer_grid   302
  ################################################################################
  #
  #  Definition of "minimal" basis
  #
  ################################################################################
  #     valence basis states
      valence      4  s   1.
      valence      3  p   6.
      valence      3  d  10.
  #     ion occupancy
      ion_occ      4  s   0.
      ion_occ      3  p   6.
      ion_occ      3  d   9.
  ################################################################################
  #
  #  Suggested additional basis functions. For production calculations,
  #  uncomment them one after another (the most important basis functions are
  #  listed first).
  #
  #  Constructed for dimers: 1.8, 2.2, 3.0, 4.0 Ang
  #
  ################################################################################
  #  "First tier" - improvements: -211.42 meV to -9.17 meV
       ionic 4 p auto
       hydro 4 f 7.4
       hydro 3 s 2.6
       hydro 3 d 5
  #     hydro 5 g 10.4
  #  "Second tier" - improvements: -2.49 meV to -1.08 meV
  #     hydro 4 p 5.8
  #     hydro 3 d 2.7
  #     hydro 6 h 15.2
  #     hydro 5 s 10.8
  #     hydro 4 f 16
  #  "Third tier" - improvements: -0.50 meV to -0.21 meV
  #     hydro 4 d 6
  #     hydro 3 p 2.4
  #     hydro 4 f 6.4
  #     hydro 3 s 6.8
  #     hydro 5 g 11.2
  #  "Fourth tier" - improvements: -0.13 meV to -0.05 meV
  #     hydro 4 p 7
  #     hydro 4 s 4
  #     hydro 6 h 14
  #     hydro 4 d 8.6
  #     hydro 5 f 15.2
  
  
  -----------------------------------------------------------------------
  Completed first pass over input file control.in .
  -----------------------------------------------------------------------
  
  
  -----------------------------------------------------------------------
  Parsing geometry.in (first pass over file, find array dimensions only).
  The contents of geometry.in will be repeated verbatim below
  unless switched off by setting 'verbatim_writeout .false.' .
  in the first line of geometry.in .
  -----------------------------------------------------------------------
  
  #=======================================================
  # FHI-aims file: geometry.in
  # Created using the Atomic Simulation Environment (ASE)
  # Tue Aug 13 10:20:27 2024
  #=======================================================
  lattice_vector 10.2686308799999999 0.0000000000000000 0.0000000000000000
  lattice_vector 5.1343154400000000 8.8928951999999999 0.0000000000000000
  lattice_vector 0.0000000000000000 0.0000000000000000 100.0000000000000000
  atom_frac 0.9166666700000000 0.1666666700000000 0.4580784899999999 Cu
      constrain_relaxation .true.
  atom_frac 0.0000000000000000 0.0000000000000000 0.4790392500000000 Cu
      constrain_relaxation .true.
  atom_frac 0.0832323200000000 0.0832452100000000 0.4999438500000000 Cu
      constrain_relaxation .true.
  atom_frac 0.9164198100000001 0.1664549400000000 0.5208558500000000 Cu
      constrain_relaxation .true.
  atom_frac 0.9998763099999999 0.9999184400000000 0.5416342100000000 Cu
      constrain_relaxation .true.
  atom_frac 0.9166666700000002 0.4166666700000000 0.4580784899999999 Cu
      constrain_relaxation .true.
  atom_frac 0.0000000000000000 0.2500000000000000 0.4790392500000000 Cu
      constrain_relaxation .true.
  atom_frac 0.0832323200000000 0.3332452200000000 0.4999438500000000 Cu
      constrain_relaxation .true.
  atom_frac 0.9164198100000001 0.4164549400000000 0.5208558500000000 Cu
      constrain_relaxation .true.
  atom_frac 0.9998763099999999 0.2499184400000000 0.5416342100000000 Cu
      constrain_relaxation .true.
  atom_frac 0.9166666700000000 0.6666666700000000 0.4580784899999999 Cu
      constrain_relaxation .true.
  atom_frac 0.0000000000000000 0.5000000000000000 0.4790392500000000 Cu
      constrain_relaxation .true.
  atom_frac 0.0832323200000001 0.5832452100000000 0.4999438500000000 Cu
      constrain_relaxation .true.
  atom_frac 0.9164198100000001 0.6664549400000001 0.5208558500000000 Cu
      constrain_relaxation .true.
  atom_frac 0.9998763099999999 0.4999184400000000 0.5416342100000000 Cu
      constrain_relaxation .true.
  atom_frac 0.9166666700000000 0.9166666700000000 0.4580784899999999 Cu
      constrain_relaxation .true.
  atom_frac 0.0000000000000000 0.7500000000000000 0.4790392500000000 Cu
      constrain_relaxation .true.
  atom_frac 0.0832323200000000 0.8332452200000000 0.4999438500000000 Cu
      constrain_relaxation .true.
  atom_frac 0.9164198100000001 0.9164549400000001 0.5208558500000000 Cu
      constrain_relaxation .true.
  atom_frac 0.9998763099999999 0.7499184400000000 0.5416342100000000 Cu
      constrain_relaxation .true.
  atom_frac 0.1666666700000001 0.1666666700000000 0.4580784899999999 Cu
      constrain_relaxation .true.
  atom_frac 0.2500000000000001 0.0000000000000000 0.4790392500000000 Cu
      constrain_relaxation .true.
  atom_frac 0.3332323200000001 0.0832452100000000 0.4999438500000000 Cu
      constrain_relaxation .true.
  atom_frac 0.1664198100000000 0.1664549400000000 0.5208558500000000 Cu
      constrain_relaxation .true.
  atom_frac 0.2498763100000000 0.9999184400000000 0.5416342100000000 Cu
      constrain_relaxation .true.
  atom_frac 0.1666666700000001 0.4166666700000000 0.4580784899999999 Cu
      constrain_relaxation .true.
  atom_frac 0.2500000000000001 0.2500000000000000 0.4790392500000000 Cu
      constrain_relaxation .true.
  atom_frac 0.3332323200000000 0.3332452200000000 0.4999438500000000 Cu
      constrain_relaxation .true.
  atom_frac 0.1664198100000000 0.4164549400000000 0.5208558500000000 Cu
      constrain_relaxation .true.
  atom_frac 0.2498763100000000 0.2499184400000000 0.5416342100000000 Cu
      constrain_relaxation .true.
  atom_frac 0.1666666700000000 0.6666666700000000 0.4580784899999999 Cu
      constrain_relaxation .true.
  atom_frac 0.2500000000000000 0.5000000000000000 0.4790392500000000 Cu
      constrain_relaxation .true.
  atom_frac 0.3332323200000001 0.5832452100000000 0.4999438500000000 Cu
      constrain_relaxation .true.
  atom_frac 0.1664198100000001 0.6664549400000001 0.5208558500000000 Cu
      constrain_relaxation .true.
  atom_frac 0.2498763100000001 0.4999184400000000 0.5416342100000000 Cu
      constrain_relaxation .true.
  atom_frac 0.1666666700000000 0.9166666700000000 0.4580784899999999 Cu
      constrain_relaxation .true.
  atom_frac 0.2500000000000001 0.7500000000000000 0.4790392500000000 Cu
      constrain_relaxation .true.
  atom_frac 0.3332323200000000 0.8332452200000000 0.4999438500000000 Cu
      constrain_relaxation .true.
  atom_frac 0.1664198100000000 0.9164549400000001 0.5208558500000000 Cu
      constrain_relaxation .true.
  atom_frac 0.2498763100000000 0.7499184400000000 0.5416342100000000 Cu
      constrain_relaxation .true.
  atom_frac 0.4166666700000000 0.1666666700000000 0.4580784899999999 Cu
      constrain_relaxation .true.
  atom_frac 0.5000000000000000 0.0000000000000000 0.4790392500000000 Cu
      constrain_relaxation .true.
  atom_frac 0.5832323200000000 0.0832452100000000 0.4999438500000000 Cu
      constrain_relaxation .true.
  atom_frac 0.4164198100000000 0.1664549400000000 0.5208558500000000 Cu
      constrain_relaxation .true.
  atom_frac 0.4998763099999999 0.9999184400000000 0.5416342100000000 Cu
      constrain_relaxation .true.
  atom_frac 0.4166666700000000 0.4166666700000000 0.4580784899999999 Cu
      constrain_relaxation .true.
  atom_frac 0.5000000000000000 0.2500000000000000 0.4790392500000000 Cu
      constrain_relaxation .true.
  atom_frac 0.5832323200000000 0.3332452100000000 0.4999438500000000 Cu
      constrain_relaxation .true.
  atom_frac 0.4164198099999999 0.4164549400000000 0.5208558500000000 Cu
      constrain_relaxation .true.
  atom_frac 0.4998763100000000 0.2499184400000000 0.5416342100000000 Cu
      constrain_relaxation .true.
  atom_frac 0.4166666700000000 0.6666666700000000 0.4580784899999999 Cu
      constrain_relaxation .true.
  atom_frac 0.5000000000000000 0.5000000000000000 0.4790392500000000 Cu
      constrain_relaxation .true.
  atom_frac 0.5832323200000000 0.5832452100000000 0.4999438500000000 Cu
      constrain_relaxation .true.
  atom_frac 0.4164198100000000 0.6664549400000001 0.5208558500000000 Cu
      constrain_relaxation .true.
  atom_frac 0.4998763100000000 0.4999184400000000 0.5416342100000000 Cu
      constrain_relaxation .true.
  atom_frac 0.4166666700000000 0.9166666700000000 0.4580784899999999 Cu
      constrain_relaxation .true.
  atom_frac 0.5000000000000000 0.7500000000000000 0.4790392500000000 Cu
      constrain_relaxation .true.
  atom_frac 0.5832323200000000 0.8332452100000000 0.4999438500000000 Cu
      constrain_relaxation .true.
  atom_frac 0.4164198100000000 0.9164549400000001 0.5208558500000000 Cu
      constrain_relaxation .true.
  atom_frac 0.4998763100000000 0.7499184400000000 0.5416342100000000 Cu
      constrain_relaxation .true.
  atom_frac 0.6666666700000000 0.1666666700000000 0.4580784899999999 Cu
      constrain_relaxation .true.
  atom_frac 0.7500000000000000 0.0000000000000000 0.4790392500000000 Cu
      constrain_relaxation .true.
  atom_frac 0.8332323200000000 0.0832452100000000 0.4999438500000000 Cu
      constrain_relaxation .true.
  atom_frac 0.6664198099999999 0.1664549400000000 0.5208558500000000 Cu
      constrain_relaxation .true.
  atom_frac 0.7498763100000000 0.9999184400000000 0.5416342100000000 Cu
      constrain_relaxation .true.
  atom_frac 0.6666666700000000 0.4166666700000000 0.4580784899999999 Cu
      constrain_relaxation .true.
  atom_frac 0.7499999999999999 0.2500000000000000 0.4790392500000000 Cu
      constrain_relaxation .true.
  atom_frac 0.8332323200000000 0.3332452100000000 0.4999438500000000 Cu
      constrain_relaxation .true.
  atom_frac 0.6664198099999998 0.4164549400000000 0.5208558500000000 Cu
      constrain_relaxation .true.
  atom_frac 0.7498763100000000 0.2499184400000000 0.5416342100000000 Cu
      constrain_relaxation .true.
  atom_frac 0.6666666700000001 0.6666666700000000 0.4580784899999999 Cu
      constrain_relaxation .true.
  atom_frac 0.7500000000000000 0.5000000000000000 0.4790392500000000 Cu
      constrain_relaxation .true.
  atom_frac 0.8332323200000000 0.5832452100000000 0.4999438500000000 Cu
      constrain_relaxation .true.
  atom_frac 0.6664198099999999 0.6664549400000001 0.5208558500000000 Cu
      constrain_relaxation .true.
  atom_frac 0.7498763100000001 0.4999184400000000 0.5416342100000000 Cu
      constrain_relaxation .true.
  atom_frac 0.6666666700000001 0.9166666700000000 0.4580784899999999 Cu
      constrain_relaxation .true.
  atom_frac 0.7500000000000001 0.7500000000000000 0.4790392500000000 Cu
      constrain_relaxation .true.
  atom_frac 0.8332323200000000 0.8332452100000000 0.4999438500000000 Cu
      constrain_relaxation .true.
  atom_frac 0.6664198099999999 0.9164549400000001 0.5208558500000000 Cu
      constrain_relaxation .true.
  atom_frac 0.7498763099999999 0.7499184400000000 0.5416342100000000 Cu
      constrain_relaxation .true.
  atom_frac 0.6083265199999999 0.6083619600000000 0.5518989000000000 H
       calculate_friction .true.
  atom_frac 0.0833333332133998 0.0833333332719486 0.4371177350144357 Cu
      constrain_relaxation .true.
  atom_frac 0.3333333329121478 0.0833333332719486 0.4371177350144357 Cu
      constrain_relaxation .true.
  atom_frac 0.5833333326108959 0.0833333332719486 0.4371177350144357 Cu
      constrain_relaxation .true.
  atom_frac 0.8333333323096440 0.0833333332719486 0.4371177350144357 Cu
      constrain_relaxation .true.
  atom_frac 0.0833333331548509 0.3333333330877944 0.4371177350144357 Cu
      constrain_relaxation .true.
  atom_frac 0.3333333328535989 0.3333333330877944 0.4371177350144357 Cu
      constrain_relaxation .true.
  atom_frac 0.5833333325523470 0.3333333330877944 0.4371177350144357 Cu
      constrain_relaxation .true.
  atom_frac 0.8333333322510950 0.3333333330877944 0.4371177350144357 Cu
      constrain_relaxation .true.
  atom_frac 0.0833333330963019 0.5833333329036404 0.4371177350144357 Cu
      constrain_relaxation .true.
  atom_frac 0.3333333327950500 0.5833333329036404 0.4371177350144357 Cu
      constrain_relaxation .true.
  atom_frac 0.5833333324937980 0.5833333329036404 0.4371177350144357 Cu
      constrain_relaxation .true.
  atom_frac 0.8333333321925462 0.5833333329036404 0.4371177350144357 Cu
      constrain_relaxation .true.
  atom_frac 0.0833333330377530 0.8333333327194863 0.4371177350144357 Cu
      constrain_relaxation .true.
  atom_frac 0.3333333327365010 0.8333333327194863 0.4371177350144357 Cu
      constrain_relaxation .true.
  atom_frac 0.5833333324352492 0.8333333327194863 0.4371177350144357 Cu
      constrain_relaxation .true.
  atom_frac 0.8333333321339972 0.8333333327194863 0.4371177350144357 Cu
      constrain_relaxation .true.
  
  -----------------------------------------------------------------------
  Completed first pass over input file geometry.in .
  -----------------------------------------------------------------------
  

  Basic array size parameters:
  | Number of species                 :        2
  | Number of atoms                   :       97
  | Number of lattice vectors         :        3
  | Max. basis fn. angular momentum   :        3
  | Max. atomic/ionic basis occupied n:        4
  | Max. number of basis fn. types    :        3
  | Max. radial fns per species/type  :        7
  | Max. logarithmic grid size        :     1406
  | Max. radial integration grid size :      107
  | Max. angular integration grid size:      302
  | Max. angular grid division number :        8
  | Radial grid for Hartree potential :     1406
  | Number of spin channels           :        1

------------------------------------------------------------
          Reading file control.in.
------------------------------------------------------------
  XC: Using PBE gradient-corrected functionals.
  Scalar relativistic treatment of kinetic energy: on-site free-atom approximation to ZORA.
  Spin treatment: No spin polarisation.
  Found k-point grid:        16        16         1
  K-point grid offset (additive shift of all k-points):   0.46875   0.46875   0.00000
  Using dipole correction.
  Occupation type: Gaussian broadening, width =   0.100000E+00 eV.
  List of k-points will be written out.
  Mulliken charge analysis will be performed and summarised to the main output.
  Full Mulliken charge analysis will be written to file 'Mulliken.out'.
  Calculating first order S and H matrices by finite difference displacement
  Nonadabatic Friction tensor will be calculated!
  Calculating all eigenstates for the basis set (i.e. includes all empty states.)
  Friction is included from excitations up to   0.2000E+01 eV
  Iteration Limit of DFPT calculation for Friction Matrices set to:       50
  Electron-phonon coupling matrices are written to file using ELSI
  Friction spectrum is discretized with  0.1000E-01 eV
  Friction window size is  0.1000E-01
 
  Reading configuration options for species H                   .
  | Found nuclear charge :   1.0000
  | Found atomic mass :    1.00794000000000      amu
  | Found l_max for Hartree potential  :   4
  | Found cutoff potl. onset [A], width [A], scale factor :    3.50000    1.50000    1.00000
  | Threshold for basis-dependent cutoff potential is   0.100000E-03
  | Found data for basic radial integration grid :    24 points, outermost radius =    5.000 A
  | Found multiplier for basic radial grid :   2
  | Found angular grid specification: user-specified.
  | Specified grid contains     5 separate shells.
  | Check grid settings after all constraints further below.
  | Found free-atom valence shell :  1 s   1.000
  | Found free-ion valence shell :  1 s   0.500
  | Found hydrogenic basis function :  2 s   2.100
  | Found hydrogenic basis function :  2 p   3.500
 | Encountered keyword species, ending the description of species H                   .
  Species H                   : Missing cutoff potential type.
  Defaulting to exp(1/x)/(1-x)^2 type cutoff potential.
  Species H : No 'logarithmic' tag. Using default grid for free atom:
  | Default logarithmic grid data [bohr] : 0.1000E-03 0.1000E+03 0.1012E+01
  Species H : On-site basis accuracy parameter (for Gram-Schmidt orthonormalisation) not specified.
  Using default value basis_acc =  0.1000000E-03.
  Species H                   : Using default innermost maximum threshold i_radial=  2 for radial functions.
  Species H                   : Default cutoff onset for free atom density etc. : 0.35000000E+01 AA.
  Species H                   : Basic radial grid will be enhanced according to radial_multiplier =   2, to contain    49 grid points.
 
  Reading configuration options for species Cu                  .
  | Found explicit parameters for TS-vdw correction:
  |    C6    =  59.000000
  |    alpha =  10.900000
  |    R0    =   2.400000
  | Found nuclear charge :  29.0000
  | Found atomic mass :    63.5460000000000      amu
  | Found l_max for Hartree potential  :   4
  | Found cutoff potl. onset [A], width [A], scale factor :    3.50000    1.50000    1.00000
  | Threshold for basis-dependent cutoff potential is   0.100000E-03
  | Found data for basic radial integration grid :    53 points, outermost radius =    5.000 A
  | Found multiplier for basic radial grid :   2
  | Found angular grid specification: user-specified.
  | Specified grid contains     5 separate shells.
  | Check grid settings after all constraints further below.
  | Found free-atom valence shell :  4 s   1.000
  | Found free-atom valence shell :  3 p   6.000
  | Found free-atom valence shell :  3 d  10.000
  | Found free-ion valence shell :  4 s   0.000
  | Found free-ion valence shell :  3 p   6.000
  | Found free-ion valence shell :  3 d   9.000
  | Found ionic basis function :  4 p , default cutoff radius.
  | Found hydrogenic basis function :  4 f   7.400
  | Found hydrogenic basis function :  3 s   2.600
  | Found hydrogenic basis function :  3 d   5.000
  Species Cu                  : Missing cutoff potential type.
  Defaulting to exp(1/x)/(1-x)^2 type cutoff potential.
  Species Cu: No 'logarithmic' tag. Using default grid for free atom:
  | Default logarithmic grid data [bohr] : 0.1000E-03 0.1000E+03 0.1012E+01
  | Will include ionic basis functions of  2.0-fold positive Cu                   ion.
  Species Cu: On-site basis accuracy parameter (for Gram-Schmidt orthonormalisation) not specified.
  Using default value basis_acc =  0.1000000E-03.
  Species Cu                  : Using default innermost maximum threshold i_radial=  2 for radial functions.
  Species Cu                  : Default cutoff onset for free atom density etc. : 0.35000000E+01 AA.
  Species Cu                  : Basic radial grid will be enhanced according to radial_multiplier =   2, to contain   107 grid points.
 
  Finished reading input file 'control.in'.
 
------------------------------------------------------------


------------------------------------------------------------
          Reading geometry description geometry.in.
------------------------------------------------------------
 No relaxation requested - ignoring relaxation constraint.
 No relaxation requested - ignoring relaxation constraint.
 No relaxation requested - ignoring relaxation constraint.
 No relaxation requested - ignoring relaxation constraint.
 No relaxation requested - ignoring relaxation constraint.
 No relaxation requested - ignoring relaxation constraint.
 No relaxation requested - ignoring relaxation constraint.
 No relaxation requested - ignoring relaxation constraint.
 No relaxation requested - ignoring relaxation constraint.
 No relaxation requested - ignoring relaxation constraint.
 No relaxation requested - ignoring relaxation constraint.
 No relaxation requested - ignoring relaxation constraint.
 No relaxation requested - ignoring relaxation constraint.
 No relaxation requested - ignoring relaxation constraint.
 No relaxation requested - ignoring relaxation constraint.
 No relaxation requested - ignoring relaxation constraint.
 No relaxation requested - ignoring relaxation constraint.
 No relaxation requested - ignoring relaxation constraint.
 No relaxation requested - ignoring relaxation constraint.
 No relaxation requested - ignoring relaxation constraint.
 No relaxation requested - ignoring relaxation constraint.
 No relaxation requested - ignoring relaxation constraint.
 No relaxation requested - ignoring relaxation constraint.
 No relaxation requested - ignoring relaxation constraint.
 No relaxation requested - ignoring relaxation constraint.
 No relaxation requested - ignoring relaxation constraint.
 No relaxation requested - ignoring relaxation constraint.
 No relaxation requested - ignoring relaxation constraint.
 No relaxation requested - ignoring relaxation constraint.
 No relaxation requested - ignoring relaxation constraint.
 No relaxation requested - ignoring relaxation constraint.
 No relaxation requested - ignoring relaxation constraint.
 No relaxation requested - ignoring relaxation constraint.
 No relaxation requested - ignoring relaxation constraint.
 No relaxation requested - ignoring relaxation constraint.
 No relaxation requested - ignoring relaxation constraint.
 No relaxation requested - ignoring relaxation constraint.
 No relaxation requested - ignoring relaxation constraint.
 No relaxation requested - ignoring relaxation constraint.
 No relaxation requested - ignoring relaxation constraint.
 No relaxation requested - ignoring relaxation constraint.
 No relaxation requested - ignoring relaxation constraint.
 No relaxation requested - ignoring relaxation constraint.
 No relaxation requested - ignoring relaxation constraint.
 No relaxation requested - ignoring relaxation constraint.
 No relaxation requested - ignoring relaxation constraint.
 No relaxation requested - ignoring relaxation constraint.
 No relaxation requested - ignoring relaxation constraint.
 No relaxation requested - ignoring relaxation constraint.
 No relaxation requested - ignoring relaxation constraint.
 No relaxation requested - ignoring relaxation constraint.
 No relaxation requested - ignoring relaxation constraint.
 No relaxation requested - ignoring relaxation constraint.
 No relaxation requested - ignoring relaxation constraint.
 No relaxation requested - ignoring relaxation constraint.
 No relaxation requested - ignoring relaxation constraint.
 No relaxation requested - ignoring relaxation constraint.
 No relaxation requested - ignoring relaxation constraint.
 No relaxation requested - ignoring relaxation constraint.
 No relaxation requested - ignoring relaxation constraint.
 No relaxation requested - ignoring relaxation constraint.
 No relaxation requested - ignoring relaxation constraint.
 No relaxation requested - ignoring relaxation constraint.
 No relaxation requested - ignoring relaxation constraint.
 No relaxation requested - ignoring relaxation constraint.
 No relaxation requested - ignoring relaxation constraint.
 No relaxation requested - ignoring relaxation constraint.
 No relaxation requested - ignoring relaxation constraint.
 No relaxation requested - ignoring relaxation constraint.
 No relaxation requested - ignoring relaxation constraint.
 No relaxation requested - ignoring relaxation constraint.
 No relaxation requested - ignoring relaxation constraint.
 No relaxation requested - ignoring relaxation constraint.
 No relaxation requested - ignoring relaxation constraint.
 No relaxation requested - ignoring relaxation constraint.
 No relaxation requested - ignoring relaxation constraint.
 No relaxation requested - ignoring relaxation constraint.
 No relaxation requested - ignoring relaxation constraint.
 No relaxation requested - ignoring relaxation constraint.
 No relaxation requested - ignoring relaxation constraint.
  Found friction request for atom     81
 No relaxation requested - ignoring relaxation constraint.
 No relaxation requested - ignoring relaxation constraint.
 No relaxation requested - ignoring relaxation constraint.
 No relaxation requested - ignoring relaxation constraint.
 No relaxation requested - ignoring relaxation constraint.
 No relaxation requested - ignoring relaxation constraint.
 No relaxation requested - ignoring relaxation constraint.
 No relaxation requested - ignoring relaxation constraint.
 No relaxation requested - ignoring relaxation constraint.
 No relaxation requested - ignoring relaxation constraint.
 No relaxation requested - ignoring relaxation constraint.
 No relaxation requested - ignoring relaxation constraint.
 No relaxation requested - ignoring relaxation constraint.
 No relaxation requested - ignoring relaxation constraint.
 No relaxation requested - ignoring relaxation constraint.
 No relaxation requested - ignoring relaxation constraint.
  | The smallest distance between any two atoms is         1.66967144 AA.
  | The first atom of this pair is atom number                     81 .
  | The second atom of this pair is atom number                    75 .
  | Wigner-Seitz cell of the first atom image           0     1     0 .
  | (The Wigner-Seitz cell of the second atom is 0 0 0  by definition.)
    FRICTION workaround shift of coordinates to avoid finite difference issue

  Symmetry information by spglib:
  | Precision set to  0.1E-04
  | Number of Operations  : 1
  | Space group           : 1
  | International         : P1
  | Schoenflies           : C1^1
  Input structure read successfully.
  The structure contains       97 atoms,  and a total of       2785.000 electrons.

  Input geometry:
  | Unit cell:
  |       10.26863088        0.00000000        0.00000000
  |        5.13431544        8.89289520        0.00000000
  |        0.00000000        0.00000000      100.00000000
  | Atomic structure:
  |       Atom                x [A]            y [A]            z [A]
  |    1: Species Cu           10.27363093        1.48714923       45.81284900
  |    2: Species Cu            0.00500000        0.00500000       47.90892500
  |    3: Species Cu            1.28708914        0.74529093       49.99938500
  |    4: Species Cu           10.27000893        1.48526634       52.09058500
  |    5: Species Cu           15.40625744        8.89716990       54.16842100
  |    6: Species Cu           11.55720979        3.71037303       45.81284900
  |    7: Species Cu            1.28857886        2.22822380       47.90892500
  |    8: Species Cu            2.57066805        2.96851482       49.99938500
  |    9: Species Cu           11.55358779        3.70849014       52.09058500
  |   10: Species Cu           11.55552086        2.22749850       54.16842100
  |   11: Species Cu           12.84078865        5.93359683       45.81284900
  |   12: Species Cu            2.57215772        4.45144760       47.90892500
  |   13: Species Cu            3.85424686        5.19173853       49.99938500
  |   14: Species Cu           12.83716665        5.93171394       52.09058500
  |   15: Species Cu           12.83909972        4.45072230       54.16842100
  |   16: Species Cu           14.12436751        8.15682063       45.81284900
  |   17: Species Cu            3.85573658        6.67467140       47.90892500
  |   18: Species Cu            5.13782577        7.41496242       49.99938500
  |   19: Species Cu           14.12074551        8.15493774       52.09058500
  |   20: Species Cu           14.12267858        6.67394610       54.16842100
  |   21: Species Cu            2.57215777        1.48714923       45.81284900
  |   22: Species Cu            2.57215772        0.00500000       47.90892500
  |   23: Species Cu            3.85424686        0.74529093       49.99938500
  |   24: Species Cu            2.56853577        1.48526634       52.09058500
  |   25: Species Cu            7.70478428        8.89716990       54.16842100
  |   26: Species Cu            3.85573663        3.71037303       45.81284900
  |   27: Species Cu            3.85573658        2.22822380       47.90892500
  |   28: Species Cu            5.13782577        2.96851482       49.99938500
  |   29: Species Cu            3.85211463        3.70849014       52.09058500
  |   30: Species Cu            3.85404770        2.22749850       54.16842100
  |   31: Species Cu            5.13931549        5.93359683       45.81284900
  |   32: Species Cu            5.13931544        4.45144760       47.90892500
  |   33: Species Cu            6.42140458        5.19173853       49.99938500
  |   34: Species Cu            5.13569349        5.93171394       52.09058500
  |   35: Species Cu            5.13762656        4.45072230       54.16842100
  |   36: Species Cu            6.42289435        8.15682063       45.81284900
  |   37: Species Cu            6.42289430        6.67467140       47.90892500
  |   38: Species Cu            7.70498349        7.41496242       49.99938500
  |   39: Species Cu            6.41927235        8.15493774       52.09058500
  |   40: Species Cu            6.42120542        6.67394610       54.16842100
  |   41: Species Cu            5.13931549        1.48714923       45.81284900
  |   42: Species Cu            5.13931544        0.00500000       47.90892500
  |   43: Species Cu            6.42140458        0.74529093       49.99938500
  |   44: Species Cu            5.13569349        1.48526634       52.09058500
  |   45: Species Cu           10.27194200        8.89716990       54.16842100
  |   46: Species Cu            6.42289435        3.71037303       45.81284900
  |   47: Species Cu            6.42289430        2.22822380       47.90892500
  |   48: Species Cu            7.70498344        2.96851473       49.99938500
  |   49: Species Cu            6.41927235        3.70849014       52.09058500
  |   50: Species Cu            6.42120542        2.22749850       54.16842100
  |   51: Species Cu            7.70647321        5.93359683       45.81284900
  |   52: Species Cu            7.70647316        4.45144760       47.90892500
  |   53: Species Cu            8.98856230        5.19173853       49.99938500
  |   54: Species Cu            7.70285121        5.93171394       52.09058500
  |   55: Species Cu            7.70478428        4.45072230       54.16842100
  |   56: Species Cu            8.99005207        8.15682063       45.81284900
  |   57: Species Cu            8.99005202        6.67467140       47.90892500
  |   58: Species Cu           10.27214116        7.41496233       49.99938500
  |   59: Species Cu            8.98643007        8.15493774       52.09058500
  |   60: Species Cu            8.98836314        6.67394610       54.16842100
  |   61: Species Cu            7.70647321        1.48714923       45.81284900
  |   62: Species Cu            7.70647316        0.00500000       47.90892500
  |   63: Species Cu            8.98856230        0.74529093       49.99938500
  |   64: Species Cu            7.70285121        1.48526634       52.09058500
  |   65: Species Cu           12.83909972        8.89716990       54.16842100
  |   66: Species Cu            8.99005207        3.71037303       45.81284900
  |   67: Species Cu            8.99005202        2.22822380       47.90892500
  |   68: Species Cu           10.27214116        2.96851473       49.99938500
  |   69: Species Cu            8.98643007        3.70849014       52.09058500
  |   70: Species Cu            8.98836314        2.22749850       54.16842100
  |   71: Species Cu           10.27363093        5.93359683       45.81284900
  |   72: Species Cu           10.27363088        4.45144760       47.90892500
  |   73: Species Cu           11.55572002        5.19173853       49.99938500
  |   74: Species Cu           10.27000893        5.93171394       52.09058500
  |   75: Species Cu           10.27194200        4.45072230       54.16842100
  |   76: Species Cu           11.55720979        8.15682063       45.81284900
  |   77: Species Cu           11.55720974        6.67467140       47.90892500
  |   78: Species Cu           12.83929888        7.41496233       49.99938500
  |   79: Species Cu           11.55358779        8.15493774       52.09058500
  |   80: Species Cu           11.55552086        6.67394610       54.16842100
  |   81: Species H             9.37520269        5.41509915       55.19489000
  |   82: Species Cu            1.28857886        0.74607460       43.71677350
  |   83: Species Cu            3.85573658        0.74607460       43.71677350
  |   84: Species Cu            6.42289429        0.74607460       43.71677350
  |   85: Species Cu            8.99005201        0.74607460       43.71677350
  |   86: Species Cu            2.57215772        2.96929840       43.71677350
  |   87: Species Cu            5.13931543        2.96929840       43.71677350
  |   88: Species Cu            7.70647315        2.96929840       43.71677350
  |   89: Species Cu           10.27363087        2.96929840       43.71677350
  |   90: Species Cu            3.85573658        5.19252220       43.71677350
  |   91: Species Cu            6.42289429        5.19252220       43.71677350
  |   92: Species Cu            8.99005201        5.19252220       43.71677350
  |   93: Species Cu           11.55720973        5.19252220       43.71677350
  |   94: Species Cu            5.13931543        7.41574599       43.71677350
  |   95: Species Cu            7.70647315        7.41574599       43.71677350
  |   96: Species Cu           10.27363087        7.41574599       43.71677350
  |   97: Species Cu           12.84078858        7.41574599       43.71677350

  Lattice parameters for 3D lattice (in Angstroms) :    10.268631   10.268631  100.000000
  Angle(s) between unit vectors (in degrees)       :    90.000000   90.000000   60.000000


  Quantities derived from the lattice vectors (in Angstrom^-1):
  | Reciprocal lattice vector 1:  0.611882 -0.353270  0.000000
  | Reciprocal lattice vector 2: -0.000000  0.706540  0.000000
  | Reciprocal lattice vector 3:  0.000000  0.000000  0.062832
  | Unit cell volume                               :   0.913179E+04  Angstrom^3

  Fractional coordinates:
                         L1                L2                L3
       atom_frac         0.91687247        0.16722892        0.45812849  Cu
       atom_frac         0.00020580        0.00056225        0.47908925  Cu
       atom_frac         0.08343812        0.08380746        0.49999385  Cu
       atom_frac         0.91662561        0.16701719        0.52090585  Cu
       atom_frac         1.00008211        1.00048069        0.54168421  Cu
       atom_frac         0.91687247        0.41722892        0.45812849  Cu
       atom_frac         0.00020580        0.25056225        0.47908925  Cu
       atom_frac         0.08343812        0.33380747        0.49999385  Cu
       atom_frac         0.91662561        0.41701719        0.52090585  Cu
       atom_frac         1.00008211        0.25048069        0.54168421  Cu
       atom_frac         0.91687247        0.66722892        0.45812849  Cu
       atom_frac         0.00020580        0.50056225        0.47908925  Cu
       atom_frac         0.08343812        0.58380746        0.49999385  Cu
       atom_frac         0.91662561        0.66701719        0.52090585  Cu
       atom_frac         1.00008211        0.50048069        0.54168421  Cu
       atom_frac         0.91687247        0.91722892        0.45812849  Cu
       atom_frac         0.00020580        0.75056225        0.47908925  Cu
       atom_frac         0.08343812        0.83380747        0.49999385  Cu
       atom_frac         0.91662561        0.91701719        0.52090585  Cu
       atom_frac         1.00008211        0.75048069        0.54168421  Cu
       atom_frac         0.16687247        0.16722892        0.45812849  Cu
       atom_frac         0.25020580        0.00056225        0.47908925  Cu
       atom_frac         0.33343812        0.08380746        0.49999385  Cu
       atom_frac         0.16662561        0.16701719        0.52090585  Cu
       atom_frac         0.25008211        1.00048069        0.54168421  Cu
       atom_frac         0.16687247        0.41722892        0.45812849  Cu
       atom_frac         0.25020580        0.25056225        0.47908925  Cu
       atom_frac         0.33343812        0.33380747        0.49999385  Cu
       atom_frac         0.16662561        0.41701719        0.52090585  Cu
       atom_frac         0.25008211        0.25048069        0.54168421  Cu
       atom_frac         0.16687247        0.66722892        0.45812849  Cu
       atom_frac         0.25020580        0.50056225        0.47908925  Cu
       atom_frac         0.33343812        0.58380746        0.49999385  Cu
       atom_frac         0.16662561        0.66701719        0.52090585  Cu
       atom_frac         0.25008211        0.50048069        0.54168421  Cu
       atom_frac         0.16687247        0.91722892        0.45812849  Cu
       atom_frac         0.25020580        0.75056225        0.47908925  Cu
       atom_frac         0.33343812        0.83380747        0.49999385  Cu
       atom_frac         0.16662561        0.91701719        0.52090585  Cu
       atom_frac         0.25008211        0.75048069        0.54168421  Cu
       atom_frac         0.41687247        0.16722892        0.45812849  Cu
       atom_frac         0.50020580        0.00056225        0.47908925  Cu
       atom_frac         0.58343812        0.08380746        0.49999385  Cu
       atom_frac         0.41662561        0.16701719        0.52090585  Cu
       atom_frac         0.50008211        1.00048069        0.54168421  Cu
       atom_frac         0.41687247        0.41722892        0.45812849  Cu
       atom_frac         0.50020580        0.25056225        0.47908925  Cu
       atom_frac         0.58343812        0.33380746        0.49999385  Cu
       atom_frac         0.41662561        0.41701719        0.52090585  Cu
       atom_frac         0.50008211        0.25048069        0.54168421  Cu
       atom_frac         0.41687247        0.66722892        0.45812849  Cu
       atom_frac         0.50020580        0.50056225        0.47908925  Cu
       atom_frac         0.58343812        0.58380746        0.49999385  Cu
       atom_frac         0.41662561        0.66701719        0.52090585  Cu
       atom_frac         0.50008211        0.50048069        0.54168421  Cu
       atom_frac         0.41687247        0.91722892        0.45812849  Cu
       atom_frac         0.50020580        0.75056225        0.47908925  Cu
       atom_frac         0.58343812        0.83380746        0.49999385  Cu
       atom_frac         0.41662561        0.91701719        0.52090585  Cu
       atom_frac         0.50008211        0.75048069        0.54168421  Cu
       atom_frac         0.66687247        0.16722892        0.45812849  Cu
       atom_frac         0.75020580        0.00056225        0.47908925  Cu
       atom_frac         0.83343812        0.08380746        0.49999385  Cu
       atom_frac         0.66662561        0.16701719        0.52090585  Cu
       atom_frac         0.75008211        1.00048069        0.54168421  Cu
       atom_frac         0.66687247        0.41722892        0.45812849  Cu
       atom_frac         0.75020580        0.25056225        0.47908925  Cu
       atom_frac         0.83343812        0.33380746        0.49999385  Cu
       atom_frac         0.66662561        0.41701719        0.52090585  Cu
       atom_frac         0.75008211        0.25048069        0.54168421  Cu
       atom_frac         0.66687247        0.66722892        0.45812849  Cu
       atom_frac         0.75020580        0.50056225        0.47908925  Cu
       atom_frac         0.83343812        0.58380746        0.49999385  Cu
       atom_frac         0.66662561        0.66701719        0.52090585  Cu
       atom_frac         0.75008211        0.50048069        0.54168421  Cu
       atom_frac         0.66687247        0.91722892        0.45812849  Cu
       atom_frac         0.75020580        0.75056225        0.47908925  Cu
       atom_frac         0.83343812        0.83380746        0.49999385  Cu
       atom_frac         0.66662561        0.91701719        0.52090585  Cu
       atom_frac         0.75008211        0.75048069        0.54168421  Cu
       atom_frac         0.60853232        0.60892421        0.55194890  H
       atom_frac         0.08353913        0.08389558        0.43716774  Cu
       atom_frac         0.33353913        0.08389558        0.43716774  Cu
       atom_frac         0.58353913        0.08389558        0.43716774  Cu
       atom_frac         0.83353913        0.08389558        0.43716774  Cu
       atom_frac         0.08353913        0.33389558        0.43716774  Cu
       atom_frac         0.33353913        0.33389558        0.43716774  Cu
       atom_frac         0.58353913        0.33389558        0.43716774  Cu
       atom_frac         0.83353913        0.33389558        0.43716774  Cu
       atom_frac         0.08353913        0.58389558        0.43716774  Cu
       atom_frac         0.33353913        0.58389558        0.43716774  Cu
       atom_frac         0.58353913        0.58389558        0.43716774  Cu
       atom_frac         0.83353913        0.58389558        0.43716774  Cu
       atom_frac         0.08353913        0.83389558        0.43716774  Cu
       atom_frac         0.33353913        0.83389558        0.43716774  Cu
       atom_frac         0.58353913        0.83389558        0.43716774  Cu
       atom_frac         0.83353913        0.83389558        0.43716774  Cu

  Slab Identifier: This is Z-oriented slab and maximum thickness of the vacuum is: 88.522 Angstrom.
 
  Finished reading input file 'geometry.in'.
 

 
  Consistency checks for stacksize environment parameter are next.
 
  | Maximum stacksize for task 0: unlimited
  | Maximum stacksize for task 1: unlimited
  | Maximum stacksize for task 2: unlimited
  | Maximum stacksize for task 3: unlimited
  | Maximum stacksize for task 4: unlimited
  | Maximum stacksize for task 5: unlimited
  | Maximum stacksize for task 6: unlimited
  | Maximum stacksize for task 7: unlimited
  | Maximum stacksize for task 8: unlimited
  | Maximum stacksize for task 9: unlimited
  | Maximum stacksize for task 10: unlimited
  | Maximum stacksize for task 11: unlimited
  | Maximum stacksize for task 12: unlimited
  | Maximum stacksize for task 13: unlimited
  | Maximum stacksize for task 14: unlimited
  | Maximum stacksize for task 15: unlimited
  | Maximum stacksize for task 16: unlimited
  | Maximum stacksize for task 17: unlimited
  | Maximum stacksize for task 18: unlimited
  | Maximum stacksize for task 19: unlimited
  | Maximum stacksize for task 20: unlimited
  | Maximum stacksize for task 21: unlimited
  | Maximum stacksize for task 22: unlimited
  | Maximum stacksize for task 23: unlimited
  | Maximum stacksize for task 24: unlimited
  | Maximum stacksize for task 25: unlimited
  | Maximum stacksize for task 26: unlimited
  | Maximum stacksize for task 27: unlimited
  | Maximum stacksize for task 28: unlimited
  | Maximum stacksize for task 29: unlimited
  | Maximum stacksize for task 30: unlimited
  | Maximum stacksize for task 31: unlimited
  | Maximum stacksize for task 32: unlimited
  | Maximum stacksize for task 33: unlimited
  | Maximum stacksize for task 34: unlimited
  | Maximum stacksize for task 35: unlimited
  | Maximum stacksize for task 36: unlimited
  | Maximum stacksize for task 37: unlimited
  | Maximum stacksize for task 38: unlimited
  | Maximum stacksize for task 39: unlimited
  | Maximum stacksize for task 40: unlimited
  | Maximum stacksize for task 41: unlimited
  | Maximum stacksize for task 42: unlimited
  | Maximum stacksize for task 43: unlimited
  | Maximum stacksize for task 44: unlimited
  | Maximum stacksize for task 45: unlimited
  | Maximum stacksize for task 46: unlimited
  | Maximum stacksize for task 47: unlimited
  | Maximum stacksize for task 48: unlimited
  | Maximum stacksize for task 49: unlimited
  | Maximum stacksize for task 50: unlimited
  | Maximum stacksize for task 51: unlimited
  | Maximum stacksize for task 52: unlimited
  | Maximum stacksize for task 53: unlimited
  | Maximum stacksize for task 54: unlimited
  | Maximum stacksize for task 55: unlimited
  | Maximum stacksize for task 56: unlimited
  | Maximum stacksize for task 57: unlimited
  | Maximum stacksize for task 58: unlimited
  | Maximum stacksize for task 59: unlimited
  | Maximum stacksize for task 60: unlimited
  | Maximum stacksize for task 61: unlimited
  | Maximum stacksize for task 62: unlimited
  | Maximum stacksize for task 63: unlimited
  | Maximum stacksize for task 64: unlimited
  | Maximum stacksize for task 65: unlimited
  | Maximum stacksize for task 66: unlimited
  | Maximum stacksize for task 67: unlimited
  | Maximum stacksize for task 68: unlimited
  | Maximum stacksize for task 69: unlimited
  | Maximum stacksize for task 70: unlimited
  | Maximum stacksize for task 71: unlimited
  | Maximum stacksize for task 72: unlimited
  | Maximum stacksize for task 73: unlimited
  | Maximum stacksize for task 74: unlimited
  | Maximum stacksize for task 75: unlimited
  | Maximum stacksize for task 76: unlimited
  | Maximum stacksize for task 77: unlimited
  | Maximum stacksize for task 78: unlimited
  | Maximum stacksize for task 79: unlimited
  | Maximum stacksize for task 80: unlimited
  | Maximum stacksize for task 81: unlimited
  | Maximum stacksize for task 82: unlimited
  | Maximum stacksize for task 83: unlimited
  | Maximum stacksize for task 84: unlimited
  | Maximum stacksize for task 85: unlimited
  | Maximum stacksize for task 86: unlimited
  | Maximum stacksize for task 87: unlimited
  | Maximum stacksize for task 88: unlimited
  | Maximum stacksize for task 89: unlimited
  | Maximum stacksize for task 90: unlimited
  | Maximum stacksize for task 91: unlimited
  | Maximum stacksize for task 92: unlimited
  | Maximum stacksize for task 93: unlimited
  | Maximum stacksize for task 94: unlimited
  | Maximum stacksize for task 95: unlimited
  | Maximum stacksize for task 96: unlimited
  | Maximum stacksize for task 97: unlimited
  | Maximum stacksize for task 98: unlimited
  | Maximum stacksize for task 99: unlimited
  | Maximum stacksize for task 100: unlimited
  | Maximum stacksize for task 101: unlimited
  | Maximum stacksize for task 102: unlimited
  | Maximum stacksize for task 103: unlimited
  | Maximum stacksize for task 104: unlimited
  | Maximum stacksize for task 105: unlimited
  | Maximum stacksize for task 106: unlimited
  | Maximum stacksize for task 107: unlimited
  | Maximum stacksize for task 108: unlimited
  | Maximum stacksize for task 109: unlimited
  | Maximum stacksize for task 110: unlimited
  | Maximum stacksize for task 111: unlimited
  | Maximum stacksize for task 112: unlimited
  | Maximum stacksize for task 113: unlimited
  | Maximum stacksize for task 114: unlimited
  | Maximum stacksize for task 115: unlimited
  | Maximum stacksize for task 116: unlimited
  | Maximum stacksize for task 117: unlimited
  | Maximum stacksize for task 118: unlimited
  | Maximum stacksize for task 119: unlimited
  | Maximum stacksize for task 120: unlimited
  | Maximum stacksize for task 121: unlimited
  | Maximum stacksize for task 122: unlimited
  | Maximum stacksize for task 123: unlimited
  | Maximum stacksize for task 124: unlimited
  | Maximum stacksize for task 125: unlimited
  | Maximum stacksize for task 126: unlimited
  | Maximum stacksize for task 127: unlimited
  | Maximum stacksize for task 128: unlimited
  | Maximum stacksize for task 129: unlimited
  | Maximum stacksize for task 130: unlimited
  | Maximum stacksize for task 131: unlimited
  | Maximum stacksize for task 132: unlimited
  | Maximum stacksize for task 133: unlimited
  | Maximum stacksize for task 134: unlimited
  | Maximum stacksize for task 135: unlimited
  | Maximum stacksize for task 136: unlimited
  | Maximum stacksize for task 137: unlimited
  | Maximum stacksize for task 138: unlimited
  | Maximum stacksize for task 139: unlimited
  | Maximum stacksize for task 140: unlimited
  | Maximum stacksize for task 141: unlimited
  | Maximum stacksize for task 142: unlimited
  | Maximum stacksize for task 143: unlimited
  | Current stacksize for task 0: unlimited
  | Current stacksize for task 1: unlimited
  | Current stacksize for task 2: unlimited
  | Current stacksize for task 3: unlimited
  | Current stacksize for task 4: unlimited
  | Current stacksize for task 5: unlimited
  | Current stacksize for task 6: unlimited
  | Current stacksize for task 7: unlimited
  | Current stacksize for task 8: unlimited
  | Current stacksize for task 9: unlimited
  | Current stacksize for task 10: unlimited
  | Current stacksize for task 11: unlimited
  | Current stacksize for task 12: unlimited
  | Current stacksize for task 13: unlimited
  | Current stacksize for task 14: unlimited
  | Current stacksize for task 15: unlimited
  | Current stacksize for task 16: unlimited
  | Current stacksize for task 17: unlimited
  | Current stacksize for task 18: unlimited
  | Current stacksize for task 19: unlimited
  | Current stacksize for task 20: unlimited
  | Current stacksize for task 21: unlimited
  | Current stacksize for task 22: unlimited
  | Current stacksize for task 23: unlimited
  | Current stacksize for task 24: unlimited
  | Current stacksize for task 25: unlimited
  | Current stacksize for task 26: unlimited
  | Current stacksize for task 27: unlimited
  | Current stacksize for task 28: unlimited
  | Current stacksize for task 29: unlimited
  | Current stacksize for task 30: unlimited
  | Current stacksize for task 31: unlimited
  | Current stacksize for task 32: unlimited
  | Current stacksize for task 33: unlimited
  | Current stacksize for task 34: unlimited
  | Current stacksize for task 35: unlimited
  | Current stacksize for task 36: unlimited
  | Current stacksize for task 37: unlimited
  | Current stacksize for task 38: unlimited
  | Current stacksize for task 39: unlimited
  | Current stacksize for task 40: unlimited
  | Current stacksize for task 41: unlimited
  | Current stacksize for task 42: unlimited
  | Current stacksize for task 43: unlimited
  | Current stacksize for task 44: unlimited
  | Current stacksize for task 45: unlimited
  | Current stacksize for task 46: unlimited
  | Current stacksize for task 47: unlimited
  | Current stacksize for task 48: unlimited
  | Current stacksize for task 49: unlimited
  | Current stacksize for task 50: unlimited
  | Current stacksize for task 51: unlimited
  | Current stacksize for task 52: unlimited
  | Current stacksize for task 53: unlimited
  | Current stacksize for task 54: unlimited
  | Current stacksize for task 55: unlimited
  | Current stacksize for task 56: unlimited
  | Current stacksize for task 57: unlimited
  | Current stacksize for task 58: unlimited
  | Current stacksize for task 59: unlimited
  | Current stacksize for task 60: unlimited
  | Current stacksize for task 61: unlimited
  | Current stacksize for task 62: unlimited
  | Current stacksize for task 63: unlimited
  | Current stacksize for task 64: unlimited
  | Current stacksize for task 65: unlimited
  | Current stacksize for task 66: unlimited
  | Current stacksize for task 67: unlimited
  | Current stacksize for task 68: unlimited
  | Current stacksize for task 69: unlimited
  | Current stacksize for task 70: unlimited
  | Current stacksize for task 71: unlimited
  | Current stacksize for task 72: unlimited
  | Current stacksize for task 73: unlimited
  | Current stacksize for task 74: unlimited
  | Current stacksize for task 75: unlimited
  | Current stacksize for task 76: unlimited
  | Current stacksize for task 77: unlimited
  | Current stacksize for task 78: unlimited
  | Current stacksize for task 79: unlimited
  | Current stacksize for task 80: unlimited
  | Current stacksize for task 81: unlimited
  | Current stacksize for task 82: unlimited
  | Current stacksize for task 83: unlimited
  | Current stacksize for task 84: unlimited
  | Current stacksize for task 85: unlimited
  | Current stacksize for task 86: unlimited
  | Current stacksize for task 87: unlimited
  | Current stacksize for task 88: unlimited
  | Current stacksize for task 89: unlimited
  | Current stacksize for task 90: unlimited
  | Current stacksize for task 91: unlimited
  | Current stacksize for task 92: unlimited
  | Current stacksize for task 93: unlimited
  | Current stacksize for task 94: unlimited
  | Current stacksize for task 95: unlimited
  | Current stacksize for task 96: unlimited
  | Current stacksize for task 97: unlimited
  | Current stacksize for task 98: unlimited
  | Current stacksize for task 99: unlimited
  | Current stacksize for task 100: unlimited
  | Current stacksize for task 101: unlimited
  | Current stacksize for task 102: unlimited
  | Current stacksize for task 103: unlimited
  | Current stacksize for task 104: unlimited
  | Current stacksize for task 105: unlimited
  | Current stacksize for task 106: unlimited
  | Current stacksize for task 107: unlimited
  | Current stacksize for task 108: unlimited
  | Current stacksize for task 109: unlimited
  | Current stacksize for task 110: unlimited
  | Current stacksize for task 111: unlimited
  | Current stacksize for task 112: unlimited
  | Current stacksize for task 113: unlimited
  | Current stacksize for task 114: unlimited
  | Current stacksize for task 115: unlimited
  | Current stacksize for task 116: unlimited
  | Current stacksize for task 117: unlimited
  | Current stacksize for task 118: unlimited
  | Current stacksize for task 119: unlimited
  | Current stacksize for task 120: unlimited
  | Current stacksize for task 121: unlimited
  | Current stacksize for task 122: unlimited
  | Current stacksize for task 123: unlimited
  | Current stacksize for task 124: unlimited
  | Current stacksize for task 125: unlimited
  | Current stacksize for task 126: unlimited
  | Current stacksize for task 127: unlimited
  | Current stacksize for task 128: unlimited
  | Current stacksize for task 129: unlimited
  | Current stacksize for task 130: unlimited
  | Current stacksize for task 131: unlimited
  | Current stacksize for task 132: unlimited
  | Current stacksize for task 133: unlimited
  | Current stacksize for task 134: unlimited
  | Current stacksize for task 135: unlimited
  | Current stacksize for task 136: unlimited
  | Current stacksize for task 137: unlimited
  | Current stacksize for task 138: unlimited
  | Current stacksize for task 139: unlimited
  | Current stacksize for task 140: unlimited
  | Current stacksize for task 141: unlimited
  | Current stacksize for task 142: unlimited
  | Current stacksize for task 143: unlimited
 
  Consistency checks for the contents of control.in are next.
 
  MPI_IN_PLACE appears to work with this MPI implementation.
  | Keeping use_mpi_in_place .true. (see manual).
  Target number of points in a grid batch is not set.  Since GPU acceleration is enabled, defaulting to  200
  Method for grid partitioning is not set. Defaulting to parallel hash+maxmin partitioning.
  Batch size limit is not set. Defaulting to    200
  By default, will store active basis functions for each batch.
  If in need of memory, prune_basis_once .false. can be used to disable this option.
  communication_type for Hartree potential was not specified.
  Defaulting to calc_hartree .
  Defaulting to Pulay charge density mixer.
  Pulay mixer: Number of relevant iterations not set.
  Defaulting to    8 iterations.
  Pulay mixer: Number of initial linear mixing iterations not set.
  Defaulting to    0 iterations.
  Work space size for distributed Hartree potential not set.
  Defaulting to   0.200000E+03 MB.
  Mixing parameter for charge density mixing has not been set.
  Using default: charge_mix_param =     0.0500.
  The mixing parameter will be adjusted in iteration number     2 of each s.c.f. cycle (i.e., each geometry step).
  Algorithm-dependent basis array size parameters:
  | n_max_pulay                         :        8
  Maximum number of self-consistency iterations not provided.
  Presetting  1000 iterations.
  Presetting      1001 iterations before the initial mixing cycle
  is restarted anyway using the sc_init_iter criterion / keyword.
  Presetting a factor      1.000 between actual scf density residual
  and density convergence criterion sc_accuracy_rho below which sc_init_iter
  takes no effect.
 * No s.c.f. convergence criteria (sc_accuracy_*) were provided in control.in.
 * The run will proceed with a reasonable default guess, but please check whether.
 * the s.c.f. cycles seem to take too much or too little time.
  Calculation of forces was not defined in control.in. No forces will be calculated.
  Geometry relaxation not requested: no relaxation will be performed.
 * Notice: The s.c.f. convergence criterion sc_accuracy_rho was not provided.
 * We used to stop in this case, and ask the user to provide reasonable
 * scf convergence criteria. However, this led some users to employ criteria
 * that led to extremely long run times, e.g., for simple relaxation.
 * We now preset a default value for sc_accuracy_rho if it is not set.
 * You may still wish to check if this setting is too tight or too loose for your needs.
 * Based on n_atoms and forces and force-correction status, FHI-aims chose sc_accuracy_rho =  0.402078E-05 .
  No accuracy limit for integral partition fn. given. Defaulting to  0.1000E-14.
  No threshold value for u(r) in integrations given. Defaulting to  0.1000E-05.
  No accuracy for occupation numbers given. Defaulting to  0.1000E-12.
  No threshold value for occupation numbers given. Defaulting to  0.0000E+00.
  No accuracy for fermi level given. Defaulting to  0.1000E-19.
  Maximum # of iterations to find E_F not set. Defaulting to  200.
  Preferred method for the eigenvalue solver ('KS_method') not specified in 'control.in'.
  Defaulting to serial version, LAPACK (via ELSI), since more k-points than CPUs available.
  Will not use alltoall communication since running on < 1024 CPUs.
  Threshold for basis singularities not set.
  Default threshold for basis singularities:  0.1000E-04
  partition_type (choice of integration weights) for integrals was not specified.
  | Using a version of the partition function of Stratmann and coworkers ('stratmann_sparse').
  | At each grid point, the set of atoms used to build the partition table is smoothly restricted to
  | only those atoms whose free-atom density would be non-zero at that grid point.
  Partitioning for Hartree potential was not defined. Using partition_type for integrals.
  | Adjusted default value of keyword multip_moments_threshold to:       0.10000000E-11
  | This value may affect high angular momentum components of the Hartree potential in periodic systems.
  Angular momentum expansion for Kerker preconditioner not set explicitly.
  | Using default value of   0
  No explicit requirement for turning off preconditioner.
  | By default, it will be turned off when the charge convergence reaches
  | sc_accuracy_rho  =   0.402078E-05
  No special mixing parameter while Kerker preconditioner is on.
  Using default: charge_mix_param =     0.0500.
  No q(lm)/r^(l+1) cutoff set for long-range Hartree potential.
  | Using default value of  0.100000E-09 .
  | Verify using the multipole_threshold keyword.
  Defaulting to new monopole extrapolation.
  Density update method: automatic selection selected.
  Using density matrix based charge density update.
  Using density matrix based charge density update.
  Using packed matrix style: index .
  Defaulting to use time-reversal symmetry for k-point grid.
  Charge integration errors on the 3D integration grid will be compensated
  by explicit normalization and distribution of residual charges.
  Use the "compensate_multipole_errors" flag to change this behaviour.
  Using the following vdw_convergence_threshold for supercell sums
  over the Tkatchenko-Scheffler correction:  0.100000E-05 eV.
  Set 'collect_eigenvectors' to be '.true.' for all serial calculations. This is mandatory.
  Set 'collect_eigenvectors' to be '.true.' for KS_method lapack_fast and serial.
  Found potential conflicts with setting 'use_local_index' for this calculation. Will not set it.
 
  Consistency checks for the contents of geometry.in are next.
 

  Range separation radius for Ewald summation (hartree_convergence_parameter):      5.00000000 bohr.
  Number of empty states per atom not set in control.in .
  | Since you are using a method that relies on the unoccupied spectrum
  | (MP2,GW,RPA et al.), will use the full Hamiltonian size (see below)
  | as the max. possible number of states (occupied plus empty).

  Structure-dependent array size parameters: 
  | Maximum number of distinct radial functions  :       14
  | Maximum number of basis functions            :     2981
  | Number of Kohn-Sham states (occupied + empty):     2981
------------------------------------------------------------
 Error: The dipole correction needs vacuum z-level to be defined
 Vacuum level will be determined automatically.
 Determine position of vacuum level automatically
 **WARNING** : This feature is experimental and still requires some testing
 **PLEASE ** : If you see it fail, please report.
 Vacuum level determined:
 set_vacuum_level   99.45583 Bohr
  After read_input_data [GB]:   1021.67

  Performing system and environment tests:
  | Environment variable OMP_NUM_THREADS correctly set to 1.
  | Checking for ScaLAPACK...
  | Testing pdtran()...
  | All pdtran() tests passed.
  After prepare_system [GB]:   1021.43
CUDA runtime version: 12010
CUDA driver version: 12020
  Initializing GPUs...

  Number of GPUs available to MPI task         0 :   4
  Number of GPUs available to MPI task         1 :   4
  Number of GPUs available to MPI task         2 :   4
  Number of GPUs available to MPI task         3 :   4
  Number of GPUs available to MPI task         4 :   4
  Number of GPUs available to MPI task         5 :   4
  Number of GPUs available to MPI task         6 :   4
  Number of GPUs available to MPI task         7 :   4
  Number of GPUs available to MPI task         8 :   4
  Number of GPUs available to MPI task         9 :   4
  Number of GPUs available to MPI task        10 :   4
  Number of GPUs available to MPI task        11 :   4
  Number of GPUs available to MPI task        12 :   4
  Number of GPUs available to MPI task        13 :   4
  Number of GPUs available to MPI task        14 :   4
  Number of GPUs available to MPI task        15 :   4
  Number of GPUs available to MPI task        16 :   4
  Number of GPUs available to MPI task        17 :   4
  Number of GPUs available to MPI task        18 :   4
  Number of GPUs available to MPI task        19 :   4
  Number of GPUs available to MPI task        20 :   4
  Number of GPUs available to MPI task        21 :   4
  Number of GPUs available to MPI task        22 :   4
  Number of GPUs available to MPI task        23 :   4
  Number of GPUs available to MPI task        24 :   4
  Number of GPUs available to MPI task        25 :   4
  Number of GPUs available to MPI task        26 :   4
  Number of GPUs available to MPI task        27 :   4
  Number of GPUs available to MPI task        28 :   4
  Number of GPUs available to MPI task        29 :   4
  Number of GPUs available to MPI task        30 :   4
  Number of GPUs available to MPI task        31 :   4
  Number of GPUs available to MPI task        32 :   4
  Number of GPUs available to MPI task        33 :   4
  Number of GPUs available to MPI task        34 :   4
  Number of GPUs available to MPI task        35 :   4
  Number of GPUs available to MPI task        36 :   4
  Number of GPUs available to MPI task        37 :   4
  Number of GPUs available to MPI task        38 :   4
  Number of GPUs available to MPI task        39 :   4
  Number of GPUs available to MPI task        40 :   4
  Number of GPUs available to MPI task        41 :   4
  Number of GPUs available to MPI task        42 :   4
  Number of GPUs available to MPI task        43 :   4
  Number of GPUs available to MPI task        44 :   4
  Number of GPUs available to MPI task        45 :   4
  Number of GPUs available to MPI task        46 :   4
  Number of GPUs available to MPI task        47 :   4
  Number of GPUs available to MPI task        48 :   4
  Number of GPUs available to MPI task        49 :   4
  Number of GPUs available to MPI task        50 :   4
  Number of GPUs available to MPI task        51 :   4
  Number of GPUs available to MPI task        52 :   4
  Number of GPUs available to MPI task        53 :   4
  Number of GPUs available to MPI task        54 :   4
  Number of GPUs available to MPI task        55 :   4
  Number of GPUs available to MPI task        56 :   4
  Number of GPUs available to MPI task        57 :   4
  Number of GPUs available to MPI task        58 :   4
  Number of GPUs available to MPI task        59 :   4
[...]
  | k-point:   31 at     0.656250    0.656250    0.000000  , weight:   0.00781250
  | k-point:   32 at     0.656250    0.718750    0.000000  , weight:   0.00781250
  | k-point:   33 at     0.656250    0.781250    0.000000  , weight:   0.00781250
  | k-point:   34 at     0.656250    0.906250    0.000000  , weight:   0.00781250
  | k-point:   35 at     0.656250    0.968750    0.000000  , weight:   0.00781250
  | k-point:   36 at     0.656250    1.031250    0.000000  , weight:   0.00781250
  | k-point:   37 at     0.656250    1.156250    0.000000  , weight:   0.00781250
  | k-point:   38 at     0.656250    1.218750    0.000000  , weight:   0.00781250
  | k-point:   39 at     0.656250    1.281250    0.000000  , weight:   0.00781250
  | k-point:   40 at     0.656250    1.406250    0.000000  , weight:   0.00781250
  | k-point:   41 at     0.718750    0.468750    0.000000  , weight:   0.00781250
  | k-point:   42 at     0.718750    0.531250    0.000000  , weight:   0.00781250
  | k-point:   43 at     0.718750    0.656250    0.000000  , weight:   0.00781250
  | k-point:   44 at     0.718750    0.718750    0.000000  , weight:   0.00781250
  | k-point:   45 at     0.718750    0.781250    0.000000  , weight:   0.00781250
  | k-point:   46 at     0.718750    0.906250    0.000000  , weight:   0.00781250
  | k-point:   47 at     0.718750    0.968750    0.000000  , weight:   0.00781250
  | k-point:   48 at     0.718750    1.031250    0.000000  , weight:   0.00781250
  | k-point:   49 at     0.718750    1.156250    0.000000  , weight:   0.00781250
  | k-point:   50 at     0.718750    1.218750    0.000000  , weight:   0.00781250
  | k-point:   51 at     0.718750    1.281250    0.000000  , weight:   0.00781250
  | k-point:   52 at     0.718750    1.406250    0.000000  , weight:   0.00781250
  | k-point:   53 at     0.781250    0.468750    0.000000  , weight:   0.00781250
  | k-point:   54 at     0.781250    0.531250    0.000000  , weight:   0.00781250
  | k-point:   55 at     0.781250    0.656250    0.000000  , weight:   0.00781250
  | k-point:   56 at     0.781250    0.718750    0.000000  , weight:   0.00781250
  | k-point:   57 at     0.781250    0.781250    0.000000  , weight:   0.00781250
  | k-point:   58 at     0.781250    0.906250    0.000000  , weight:   0.00781250
  | k-point:   59 at     0.781250    0.968750    0.000000  , weight:   0.00781250
  | k-point:   60 at     0.781250    1.031250    0.000000  , weight:   0.00781250
  | k-point:   61 at     0.781250    1.156250    0.000000  , weight:   0.00781250
  | k-point:   62 at     0.781250    1.218750    0.000000  , weight:   0.00781250
  | k-point:   63 at     0.781250    1.281250    0.000000  , weight:   0.00781250
  | k-point:   64 at     0.781250    1.406250    0.000000  , weight:   0.00781250
  | k-point:   65 at     0.843750    0.468750    0.000000  , weight:   0.00781250
  | k-point:   66 at     0.843750    0.531250    0.000000  , weight:   0.00781250
  | k-point:   67 at     0.843750    0.656250    0.000000  , weight:   0.00781250
  | k-point:   68 at     0.843750    0.718750    0.000000  , weight:   0.00781250
  | k-point:   69 at     0.843750    0.781250    0.000000  , weight:   0.00781250
  | k-point:   70 at     0.843750    0.906250    0.000000  , weight:   0.00781250
  | k-point:   71 at     0.843750    0.968750    0.000000  , weight:   0.00781250
  | k-point:   72 at     0.843750    1.031250    0.000000  , weight:   0.00781250
  | k-point:   73 at     0.843750    1.156250    0.000000  , weight:   0.00781250
  | k-point:   74 at     0.843750    1.218750    0.000000  , weight:   0.00781250
  | k-point:   75 at     0.843750    1.281250    0.000000  , weight:   0.00781250
  | k-point:   76 at     0.843750    1.406250    0.000000  , weight:   0.00781250
  | k-point:   77 at     0.906250    0.468750    0.000000  , weight:   0.00781250
  | k-point:   78 at     0.906250    0.531250    0.000000  , weight:   0.00781250
  | k-point:   79 at     0.906250    0.656250    0.000000  , weight:   0.00781250
  | k-point:   80 at     0.906250    0.718750    0.000000  , weight:   0.00781250
  | k-point:   81 at     0.906250    0.781250    0.000000  , weight:   0.00781250
  | k-point:   82 at     0.906250    0.906250    0.000000  , weight:   0.00781250
  | k-point:   83 at     0.906250    0.968750    0.000000  , weight:   0.00781250
  | k-point:   84 at     0.906250    1.031250    0.000000  , weight:   0.00781250
  | k-point:   85 at     0.906250    1.156250    0.000000  , weight:   0.00781250
  | k-point:   86 at     0.906250    1.218750    0.000000  , weight:   0.00781250
  | k-point:   87 at     0.906250    1.281250    0.000000  , weight:   0.00781250
  | k-point:   88 at     0.906250    1.406250    0.000000  , weight:   0.00781250
  | k-point:   89 at     0.968750    0.468750    0.000000  , weight:   0.00781250
  | k-point:   90 at     0.968750    0.531250    0.000000  , weight:   0.00781250
  | k-point:   91 at     0.968750    0.656250    0.000000  , weight:   0.00781250
  | k-point:   92 at     0.968750    0.718750    0.000000  , weight:   0.00781250
  | k-point:   93 at     0.968750    0.781250    0.000000  , weight:   0.00781250
  | k-point:   94 at     0.968750    0.906250    0.000000  , weight:   0.00781250
  | k-point:   95 at     0.968750    0.968750    0.000000  , weight:   0.00781250
  | k-point:   96 at     0.968750    1.031250    0.000000  , weight:   0.00781250
  | k-point:   97 at     0.968750    1.156250    0.000000  , weight:   0.00781250
  | k-point:   98 at     0.968750    1.218750    0.000000  , weight:   0.00781250
  | k-point:   99 at     0.968750    1.281250    0.000000  , weight:   0.00781250
  | k-point:  100 at     0.968750    1.406250    0.000000  , weight:   0.00781250
  | k-point:  101 at     1.031250    0.656250    0.000000  , weight:   0.00781250
  | k-point:  102 at     1.031250    0.906250    0.000000  , weight:   0.00781250
  | k-point:  103 at     1.031250    1.156250    0.000000  , weight:   0.00781250
  | k-point:  104 at     1.031250    1.406250    0.000000  , weight:   0.00781250
  | k-point:  105 at     1.093750    0.656250    0.000000  , weight:   0.00781250
  | k-point:  106 at     1.093750    0.906250    0.000000  , weight:   0.00781250
  | k-point:  107 at     1.093750    1.156250    0.000000  , weight:   0.00781250
  | k-point:  108 at     1.093750    1.406250    0.000000  , weight:   0.00781250
  | k-point:  109 at     1.156250    0.656250    0.000000  , weight:   0.00781250
  | k-point:  110 at     1.156250    0.906250    0.000000  , weight:   0.00781250
  | k-point:  111 at     1.156250    1.156250    0.000000  , weight:   0.00781250
  | k-point:  112 at     1.156250    1.406250    0.000000  , weight:   0.00781250
  | k-point:  113 at     1.218750    0.656250    0.000000  , weight:   0.00781250
  | k-point:  114 at     1.218750    0.906250    0.000000  , weight:   0.00781250
  | k-point:  115 at     1.218750    1.156250    0.000000  , weight:   0.00781250
  | k-point:  116 at     1.218750    1.406250    0.000000  , weight:   0.00781250
  | k-point:  117 at     1.281250    0.656250    0.000000  , weight:   0.00781250
  | k-point:  118 at     1.281250    0.906250    0.000000  , weight:   0.00781250
  | k-point:  119 at     1.281250    1.156250    0.000000  , weight:   0.00781250
  | k-point:  120 at     1.281250    1.406250    0.000000  , weight:   0.00781250
  | k-point:  121 at     1.343750    0.656250    0.000000  , weight:   0.00781250
  | k-point:  122 at     1.343750    0.906250    0.000000  , weight:   0.00781250
  | k-point:  123 at     1.343750    1.156250    0.000000  , weight:   0.00781250
  | k-point:  124 at     1.343750    1.406250    0.000000  , weight:   0.00781250
  | k-point:  125 at     1.406250    0.656250    0.000000  , weight:   0.00781250
  | k-point:  126 at     1.406250    0.906250    0.000000  , weight:   0.00781250
  | k-point:  127 at     1.406250    1.156250    0.000000  , weight:   0.00781250
  | k-point:  128 at     1.406250    1.406250    0.000000  , weight:   0.00781250
  | Consuming        512 KiB for k_phase_exx.
  | Number of basis functions in the Hamiltonian integrals :     16306
  | Number of basis functions in a single unit cell        :      2981
  | Number of centers in hartree potential         :      3231
  | Number of centers in hartree multipole         :      1533
  | Number of centers in electron density summation:      1302
  | Number of centers in basis integrals           :      1302
  | Number of centers in integrals                 :       676
  | Number of centers in hamiltonian               :      1302
  | Consuming         56 KiB for k_phase.
  | Number of super-cells (origin) [n_cells]                     :         147
  | Number of super-cells (after PM_index) [n_cells]             :          28
  | Number of super-cells in hamiltonian [n_cells_in_hamiltonian]:          28
  | Size of matrix packed + index [n_hamiltonian_matrix_size] :     7228144
  | Size of matrix packed + index (no_symmetry):    14453306
  Partitioning the integration grid into batches with parallel hashing+maxmin method.
  Initializing partition tables, free-atom densities, potentials, etc. across the integration grid (initialize_grid_storage).
  | Species        1: outer_partition_radius set to              5.054417573612229 AA .
  | Species        2: outer_partition_radius set to              5.027070365347909 AA .
  | Net number of integration points:  1385978
  | of which are non-zero points    :  1144080
  Renormalizing the initial density to the exact electron count on the 3D integration grid.
  | Initial density: Formal number of electrons (from input files) :    2785.0000000000
  | Integrated number of electrons on 3D grid     :    2785.0087444430
  | Charge integration error                      :       0.0087444430
  | Normalization factor for density and gradient :       0.9999968602
  Renormalizing the free-atom superposition density to the exact electron count on the 3D integration grid.
  | Formal number of electrons (from input files) :    2785.0000000000
  | Integrated number of electrons on 3D grid     :    2785.0087444430
  | Charge integration error                      :       0.0087444430
  | Normalization factor for density and gradient :       0.9999968602
  Calculating total energy contributions from superposition of free atom densities.
  Initialize hartree_potential_storage
  Max. number of atoms included in rho_multipole:           97
  Integrating overlap matrix.
  Time summed over all CPUs for integration: real work      115.828 s, elapsed      121.711 s
  Orthonormalizing eigenvectors

  End scf reinitialization - timings           :  max(cpu_time)    wall_clock(cpu1)
  | Time for scf. reinitialization              :       18.753 s          18.750 s
  | Boundary condition initialization           :        0.836 s           0.831 s
  | Integration                                 :        0.964 s           0.962 s
  | Grid partitioning                           :        2.564 s           2.565 s
  | Preloading free-atom quantities on grid     :        0.633 s           0.633 s
  | Free-atom superposition energy              :        0.083 s           0.083 s
  | K.-S. eigenvector reorthonormalization      :       13.670 s           0.000 s
------------------------------------------------------------
  Starting evaluation of the nonadiabatic coupling matrix
  Writing frequency-dependent friction tensor to friction_tensor_grid.out
  Starting evaluation of friction tensor
    --------Printing Friction Tensor in 1/ps--------
         1   0.202942186E+01  -0.319226205E-01   0.554544705E-01
         2  -0.319226205E-01   0.206647600E+01   0.344812749E-01
         3   0.554544705E-01   0.344812749E-01   0.168797917E+01
    --------END Printing Friction Tensor--------
    ---------------Diagonal Friction Eigvals in 1/ps-----------------
             0.405231262E-04   0.489515088E-04   0.504306599E-04
    -------------Diagonalized Friction Eigvecs-----------
         1  -0.162706162E+00   0.854094590E+00  -0.494013296E+00
         2  -0.998003240E-01   0.483871278E+00   0.869429975E+00
         3   0.981614283E+00   0.190764301E+00   0.651007818E-02

------------------------------------------------------------------------------
  Final output of selected total energy values:

  The following output summarizes some interesting total energy values
  at the end of a run (AFTER all relaxation, molecular dynamics, etc.).

  | Total energy of the DFT / Hartree-Fock s.c.f. calculation      :              0.000000000 eV
  | Final zero-broadening corrected energy (caution - metals only) :             -0.075182252 eV
  | For reference only, the value of 1 Hartree used in FHI-aims is :             27.211384500 eV
  | For reference only, the overall average (free atom contribution
  | + realspace contribution) of the electrostatic potential after
  | s.c.f. convergence is                                          :             -2.831602837 eV

  Before relying on these values, please be sure to understand exactly which
  total energy value is referred to by a given number. Different objects may
  all carry the same name 'total energy'. Definitions:

  Total energy of the DFT / Hartree-Fock s.c.f. calculation:
  | Note that this energy does not include ANY quantities calculated after the
  | s.c.f. cycle, in particular not ANY RPA, MP2, etc. many-body perturbation terms.

  Final zero-broadening corrected energy:
  | For metallic systems only, a broadening of the occupation numbers at the Fermi
  | level can be extrapolated back to zero broadening by an electron-gas inspired
  | formula. For all systems that are not real metals, this value can be
  | meaningless and should be avoided.

------------------------------------------------------------------------------
  Methods described in the following list of references were used in this FHI-aims run.
  If you publish the results, please make sure to cite these reference if they apply.
  FHI-aims is an academic code, and for our developers (often, Ph.D. students
  and postdocs), scientific credit in the community is essential.
  Thank you for helping us!

  For any use of FHI-aims, please cite:

    Volker Blum, Ralf Gehrke, Felix Hanke, Paula Havu, Ville Havu,
    Xinguo Ren, Karsten Reuter, and Matthias Scheffler
    'Ab initio molecular simulations with numeric atom-centered orbitals'
    Computer Physics Communications 180, 2175-2196 (2009)
    http://doi.org/10.1016/j.cpc.2009.06.022


  The provided symmetry information was generated with SPGlib:

    Atsushi Togo, Yusuke Seto, Dimitar Pashov
    SPGlib 1.7.3 obtained from http://spglib.sourceforge.net
    Licence: New BSD license
    Copyright (C) 2008 Atsushi Togo


  For calculations of tensorial nonadiabatic friction using
  time-dependent perturbation theory, please cite:

    Reinhard J. Maurer, Mikhail Askerka, Victor S.Batista, John C. Tully
    'Ab initio tensorial electronic friction for molecules
    on metal surfaces: Nonadiabatic vibrational relaxation'
    Physical Review B, 94, 115432 (2016)


  The ELSI infrastructure was used in your run to solve the Kohn-Sham electronic structure.
  Please check out https://wordpress.elsi-interchange.org to learn more.
  If scalability is important for your project, please acknowledge ELSI by citing:

    V. W-z. Yu, F. Corsetti, A. Garcia, W. P. Huhn, M. Jacquelin, W. Jia,
    B. Lange, L. Lin, J. Lu, W. Mi, A. Seifitokaldani, A. Vazquez-Mayagoitia,
    C. Yang, H. Yang, and V. Blum
    'ELSI: A unified software interface for Kohn-Sham electronic structure solvers'
    Computer Physics Communications 222, 267-285 (2018).
    http://doi.org/10.1016/j.cpc.2017.09.007


  For the real-space grid partitioning and parallelization used in this calculation, please cite:

    Ville Havu, Volker Blum, Paula Havu, and Matthias Scheffler,
    'Efficient O(N) integration for all-electron electronic structure calculation'
    'using numerically tabulated basis functions'
    Journal of Computational Physics 228, 8367-8379 (2009).
    http://doi.org/10.1016/j.jcp.2009.08.008

  Of course, there are many other important community references, e.g., those cited in the
  above references. Our list is limited to references that describe implementations in the
  FHI-aims code. The reason is purely practical (length of this list) - please credit others as well.

 * A warning was issued further up regarding the CPU load.
   Some CPUs do not participate in the eigenvalue solution.
   In corner cases, this may be the correct behavior. Otherwise,
   consider using a scalapack/elpa version of the code for a parallel treatment.

------------------------------------------------------------
          Leaving FHI-aims.
          Date     :  20240821, Time     :  053021.207

          Computational steps:
          | Number of self-consistency cycles          :          131
          | Number of SCF (re)initializations          :            8

          Detailed time accounting                     :  max(cpu_time)    wall_clock(cpu1)
          | Total time                                  :    12433.520 s       12457.736 s
          | GPU initialization                          :        4.205 s          24.101 s
          | Preparation time                            :        0.232 s           0.217 s
          | Boundary condition initalization            :        5.606 s           5.575 s
          | Grid partitioning                           :       20.741 s          20.745 s
          | Preloading free-atom quantities on grid     :        5.234 s           5.234 s
          | Free-atom superposition energy              :        0.687 s           0.686 s
          | Total time for integrations                 :      182.722 s         182.682 s
          | Total time for solution of K.-S. equations  :     4663.883 s        4664.312 s
          | Total time for density update               :     7051.162 s        7049.129 s
          | Total time for mixing & preconditioning     :      116.867 s         116.848 s
          | Total time for Hartree multipole update     :        1.227 s           1.217 s
          | Total time for Hartree multipole sum        :       57.854 s          57.844 s
          | Total time for total energy evaluation      :        1.714 s           1.776 s
          | Total time for scaled ZORA corrections      :        0.000 s           0.000 s
          | Total time for vdW correction               :       53.638 s          53.615 s
          | Total time for Mulliken analysis            :      144.818 s         144.807 s
          | Time for friction finite difference         :     7645.331 s        7645.914 s
          | Time for friction tensor calculation        :       28.782 s          28.795 s

          GPU acceleration has been used for charge density update.
          GPU acceleration has been used for real-space Hamiltonian integration.
          Due to GPU usage, wall_clock(cpu1) will give a more reliable estimate for timings.

          Partial memory accounting:
          | Residual value for overall tracked memory usage across tasks:     0.000000 MB (should be 0.000000 MB)
          | Peak values for overall tracked memory usage:
          |   Minimum:      682.286 MB (on task   0 after allocating eval_tmp)
          |   Maximum:     1365.819 MB (on task   5 after allocating eval_tmp)
          |   Average:     1289.864 MB
          | Largest tracked array allocation:
          |   Minimum:      135.595 MB (first_order_S_cmplx on task   0)
          |   Maximum:      406.785 MB (coupling_matrix_complex on task   1)
          |   Average:      376.653 MB
          Note:  These values currently only include a subset of arrays which are explicitly tracked.
          The "true" memory usage will be greater.

          Have a nice day.
------------------------------------------------------------
